<?xml version="1.0" encoding="UTF-8"?>

<!-- generated on 2024-05-02 01:05:37 by Eclipse SUMO sumo Version 1.12.0
<configuration xmlns:xsi="http://www.w3.org/2001/XMLSchema-instance" xsi:noNamespaceSchemaLocation="http://sumo.dlr.de/xsd/sumoConfiguration.xsd">

    <input>
        <net-file value="net.xml"/>
        <additional-files value="add.xml"/>
    </input>

    <output>
        <netstate-dump value="out2.xml"/>
        <fcd-output value="out.xml"/>
    </output>

    <time>
        <begin value="0"/>
        <end value="1000"/>
        <step-length value="0.4"/>
    </time>

    <gui_only>
        <tracker-interval value="0.4"/>
    </gui_only>

</configuration>
-->

<fcd-export xmlns:xsi="http://www.w3.org/2001/XMLSchema-instance" xsi:noNamespaceSchemaLocation="http://sumo.dlr.de/xsd/fcd_file.xsd">
    <timestep time="0.00">
        <vehicle id="0" x="36.63" y="-1.60" angle="93.89" type="rl" speed="0.00" pos="0.00" lane="right_0" slope="0.00"/>
        <vehicle id="1" x="43.99" y="-0.88" angle="82.84" type="human" speed="0.00" pos="7.10" lane="right_0" slope="0.00"/>
        <vehicle id="2" x="51.07" y="1.25" angle="71.64" type="human" speed="0.00" pos="14.20" lane="right_0" slope="0.00"/>
        <vehicle id="3" x="36.57" y="74.81" angle="273.89" type="human" speed="0.00" pos="0.00" lane="left_0" slope="0.00"/>
        <vehicle id="4" x="29.21" y="74.09" angle="262.84" type="human" speed="0.00" pos="7.10" lane="left_0" slope="0.00"/>
    </timestep>
    <timestep time="0.40">
        <vehicle id="0" x="36.64" y="-1.60" angle="93.87" type="rl" speed="0.03" pos="0.01" lane="right_0" slope="0.00"/>
        <vehicle id="1" x="44.00" y="-0.88" angle="82.82" type="human" speed="0.03" pos="7.11" lane="right_0" slope="0.00"/>
        <vehicle id="2" x="51.22" y="1.31" angle="71.42" type="human" speed="0.40" pos="14.36" lane="right_0" slope="0.00"/>
        <vehicle id="3" x="36.56" y="74.81" angle="273.87" type="human" speed="0.03" pos="0.01" lane="left_0" slope="0.00"/>
        <vehicle id="4" x="29.05" y="74.06" angle="262.62" type="human" speed="0.40" pos="7.26" lane="left_0" slope="0.00"/>
    </timestep>
    <timestep time="0.80">
        <vehicle id="0" x="36.67" y="-1.60" angle="93.82" type="rl" speed="0.06" pos="0.04" lane="right_0" slope="0.00"/>
        <vehicle id="1" x="44.04" y="-0.87" angle="82.77" type="human" speed="0.10" pos="7.15" lane="right_0" slope="0.00"/>
        <vehicle id="2" x="51.53" y="1.44" angle="70.91" type="human" speed="0.80" pos="14.68" lane="right_0" slope="0.00"/>
        <vehicle id="3" x="36.51" y="74.81" angle="273.79" type="human" speed="0.10" pos="0.05" lane="left_0" slope="0.00"/>
        <vehicle id="4" x="28.72" y="73.99" angle="262.03" type="human" speed="0.80" pos="7.58" lane="left_0" slope="0.00"/>
    </timestep>
    <timestep time="1.20">
        <vehicle id="0" x="36.70" y="-1.60" angle="93.77" type="rl" speed="0.08" pos="0.07" lane="right_0" slope="0.00"/>
        <vehicle id="1" x="44.14" y="-0.85" angle="82.64" type="human" speed="0.23" pos="7.24" lane="right_0" slope="0.00"/>
        <vehicle id="2" x="51.99" y="1.65" angle="70.03" type="human" speed="1.20" pos="15.16" lane="right_0" slope="0.00"/>
        <vehicle id="3" x="36.42" y="74.81" angle="273.62" type="human" speed="0.23" pos="0.14" lane="left_0" slope="0.00"/>
        <vehicle id="4" x="28.23" y="73.88" angle="261.23" type="human" speed="1.20" pos="8.06" lane="left_0" slope="0.00"/>
    </timestep>
    <timestep time="1.60">
        <vehicle id="0" x="36.75" y="-1.60" angle="93.69" type="rl" speed="0.11" pos="0.11" lane="right_0" slope="0.00"/>
        <vehicle id="1" x="44.30" y="-0.82" angle="82.35" type="human" speed="0.40" pos="7.41" lane="right_0" slope="0.00"/>
        <vehicle id="2" x="52.60" y="1.92" angle="69.16" type="human" speed="1.60" pos="15.80" lane="right_0" slope="0.00"/>
        <vehicle id="3" x="36.25" y="74.80" angle="273.33" type="human" speed="0.40" pos="0.31" lane="left_0" slope="0.00"/>
        <vehicle id="4" x="27.58" y="73.73" angle="260.35" type="human" speed="1.60" pos="8.70" lane="left_0" slope="0.00"/>
    </timestep>
    <timestep time="2.00">
        <vehicle id="0" x="36.82" y="-1.60" angle="93.56" type="rl" speed="0.17" pos="0.18" lane="right_0" slope="0.00"/>
        <vehicle id="1" x="44.56" y="-0.76" angle="81.89" type="human" speed="0.63" pos="7.66" lane="right_0" slope="0.00"/>
        <vehicle id="2" x="53.35" y="2.28" angle="67.83" type="human" speed="2.00" pos="16.60" lane="right_0" slope="0.00"/>
        <vehicle id="3" x="35.99" y="74.80" angle="272.86" type="human" speed="0.63" pos="0.56" lane="left_0" slope="0.00"/>
        <vehicle id="4" x="26.78" y="73.52" angle="258.95" type="human" speed="2.00" pos="9.50" lane="left_0" slope="0.00"/>
    </timestep>
    <timestep time="2.40">
        <vehicle id="0" x="36.93" y="-1.59" angle="93.36" type="rl" speed="0.27" pos="0.29" lane="right_0" slope="0.00"/>
        <vehicle id="1" x="44.92" y="-0.68" angle="81.30" type="human" speed="0.89" pos="8.01" lane="right_0" slope="0.00"/>
        <vehicle id="2" x="54.25" y="2.72" angle="66.47" type="human" speed="2.40" pos="17.56" lane="right_0" slope="0.00"/>
        <vehicle id="3" x="35.62" y="74.79" angle="272.38" type="human" speed="0.89" pos="0.91" lane="left_0" slope="0.00"/>
        <vehicle id="4" x="25.81" y="73.25" angle="257.50" type="human" speed="2.40" pos="10.46" lane="left_0" slope="0.00"/>
    </timestep>
    <timestep time="2.80">
        <vehicle id="0" x="37.10" y="-1.59" angle="93.07" type="rl" speed="0.40" pos="0.45" lane="right_0" slope="0.00"/>
        <vehicle id="1" x="45.40" y="-0.57" angle="80.65" type="human" speed="1.18" pos="8.48" lane="right_0" slope="0.00"/>
        <vehicle id="2" x="55.27" y="3.28" angle="64.70" type="human" speed="2.79" pos="18.67" lane="right_0" slope="0.00"/>
        <vehicle id="3" x="35.13" y="74.78" angle="271.73" type="human" speed="1.18" pos="1.38" lane="left_0" slope="0.00"/>
        <vehicle id="4" x="24.70" y="72.91" angle="255.77" type="human" speed="2.79" pos="11.57" lane="left_0" slope="0.00"/>
    </timestep>
    <timestep time="3.20">
        <vehicle id="0" x="37.33" y="-1.59" angle="92.70" type="rl" speed="0.57" pos="0.67" lane="right_0" slope="0.00"/>
        <vehicle id="1" x="46.00" y="-0.42" angle="79.66" type="human" speed="1.49" pos="9.08" lane="right_0" slope="0.00"/>
        <vehicle id="2" x="56.42" y="3.95" angle="62.69" type="human" speed="3.19" pos="19.95" lane="right_0" slope="0.00"/>
        <vehicle id="3" x="34.51" y="74.75" angle="270.67" type="human" speed="1.49" pos="1.98" lane="left_0" slope="0.00"/>
        <vehicle id="4" x="23.44" y="72.47" angle="253.79" type="human" speed="3.19" pos="12.85" lane="left_0" slope="0.00"/>
    </timestep>
    <timestep time="3.60">
        <vehicle id="0" x="37.65" y="-1.58" angle="92.28" type="rl" speed="0.77" pos="0.98" lane="right_0" slope="0.00"/>
        <vehicle id="1" x="46.73" y="-0.23" angle="78.53" type="human" speed="1.81" pos="9.80" lane="right_0" slope="0.00"/>
        <vehicle id="2" x="57.68" y="4.75" angle="60.42" type="human" speed="3.59" pos="21.38" lane="right_0" slope="0.00"/>
        <vehicle id="3" x="33.75" y="74.70" angle="269.66" type="human" speed="1.81" pos="2.70" lane="left_0" slope="0.00"/>
        <vehicle id="4" x="22.05" y="71.93" angle="251.56" type="human" speed="3.59" pos="14.28" lane="left_0" slope="0.00"/>
    </timestep>
    <timestep time="4.00">
        <vehicle id="0" x="38.07" y="-1.57" angle="91.73" type="rl" speed="1.00" pos="1.38" lane="right_0" slope="0.00"/>
        <vehicle id="1" x="47.59" y="0.02" angle="77.12" type="human" speed="2.15" pos="10.66" lane="right_0" slope="0.00"/>
        <vehicle id="2" x="59.05" y="5.70" angle="57.90" type="human" speed="3.98" pos="22.98" lane="right_0" slope="0.00"/>
        <vehicle id="3" x="32.86" y="74.62" angle="268.21" type="human" speed="2.15" pos="3.56" lane="left_0" slope="0.00"/>
        <vehicle id="4" x="20.53" y="71.26" angle="249.10" type="human" speed="3.98" pos="15.88" lane="left_0" slope="0.00"/>
    </timestep>
    <timestep time="4.40">
        <vehicle id="0" x="38.59" y="-1.54" angle="90.84" type="rl" speed="1.25" pos="1.88" lane="right_0" slope="0.00"/>
        <vehicle id="1" x="48.59" y="0.33" angle="75.63" type="human" speed="2.50" pos="11.66" lane="right_0" slope="0.00"/>
        <vehicle id="2" x="60.50" y="6.80" angle="55.25" type="human" speed="4.37" pos="24.73" lane="right_0" slope="0.00"/>
        <vehicle id="3" x="31.82" y="74.51" angle="266.73" type="human" speed="2.50" pos="4.56" lane="left_0" slope="0.00"/>
        <vehicle id="4" x="18.89" y="70.45" angle="246.31" type="human" speed="4.37" pos="17.63" lane="left_0" slope="0.00"/>
    </timestep>
    <timestep time="4.80">
        <vehicle id="0" x="39.23" y="-1.50" angle="89.94" type="rl" speed="1.52" pos="2.49" lane="right_0" slope="0.00"/>
        <vehicle id="1" x="49.71" y="0.73" angle="73.82" type="human" speed="2.85" pos="12.80" lane="right_0" slope="0.00"/>
        <vehicle id="2" x="62.01" y="8.09" angle="52.17" type="human" speed="4.76" pos="26.63" lane="right_0" slope="0.00"/>
        <vehicle id="3" x="30.65" y="74.34" angle="265.03" type="human" speed="2.85" pos="5.70" lane="left_0" slope="0.00"/>
        <vehicle id="4" x="17.16" y="69.48" angle="243.21" type="human" speed="4.76" pos="19.53" lane="left_0" slope="0.00"/>
    </timestep>
    <timestep time="5.20">
        <vehicle id="0" x="39.98" y="-1.45" angle="88.79" type="rl" speed="1.81" pos="3.22" lane="right_0" slope="0.00"/>
        <vehicle id="1" x="50.96" y="1.21" angle="71.79" type="human" speed="3.21" pos="14.09" lane="right_0" slope="0.00"/>
        <vehicle id="2" x="63.58" y="9.56" angle="49.00" type="human" speed="5.15" pos="28.69" lane="right_0" slope="0.00"/>
        <vehicle id="3" x="29.33" y="74.11" angle="262.99" type="human" speed="3.21" pos="6.99" lane="left_0" slope="0.00"/>
        <vehicle id="4" x="15.34" y="68.34" angle="240.10" type="human" speed="5.15" pos="21.59" lane="left_0" slope="0.00"/>
    </timestep>
    <timestep time="5.60">
        <vehicle id="0" x="40.86" y="-1.36" angle="87.52" type="rl" speed="2.12" pos="4.06" lane="right_0" slope="0.00"/>
        <vehicle id="1" x="52.33" y="1.80" angle="69.54" type="human" speed="3.57" pos="15.52" lane="right_0" slope="0.00"/>
        <vehicle id="2" x="65.16" y="11.25" angle="45.48" type="human" speed="5.54" pos="30.91" lane="right_0" slope="0.00"/>
        <vehicle id="3" x="27.87" y="73.80" angle="260.74" type="human" speed="3.58" pos="8.42" lane="left_0" slope="0.00"/>
        <vehicle id="4" x="13.46" y="67.00" angle="236.62" type="human" speed="5.53" pos="23.80" lane="left_0" slope="0.00"/>
    </timestep>
    <timestep time="6.00">
        <vehicle id="0" x="41.87" y="-1.23" angle="85.93" type="rl" speed="2.43" pos="5.04" lane="right_0" slope="0.00"/>
        <vehicle id="1" x="53.81" y="2.51" angle="67.14" type="human" speed="3.94" pos="17.09" lane="right_0" slope="0.00"/>
        <vehicle id="2" x="66.74" y="13.14" angle="41.83" type="human" speed="5.92" pos="33.28" lane="right_0" slope="0.00"/>
        <vehicle id="3" x="26.27" y="73.39" angle="258.27" type="human" speed="3.94" pos="9.99" lane="left_0" slope="0.00"/>
        <vehicle id="4" x="11.55" y="65.45" angle="232.99" type="human" speed="5.91" pos="26.16" lane="left_0" slope="0.00"/>
    </timestep>
    <timestep time="6.40">
        <vehicle id="0" x="43.00" y="-1.06" angle="84.28" type="rl" speed="2.76" pos="6.14" lane="right_0" slope="0.00"/>
        <vehicle id="1" x="55.40" y="3.35" angle="64.51" type="human" speed="4.31" pos="18.82" lane="right_0" slope="0.00"/>
        <vehicle id="2" x="68.28" y="15.27" angle="37.86" type="human" speed="6.30" pos="35.80" lane="right_0" slope="0.00"/>
        <vehicle id="3" x="24.55" y="72.86" angle="255.53" type="human" speed="4.31" pos="11.72" lane="left_0" slope="0.00"/>
        <vehicle id="4" x="9.63" y="63.66" angle="228.94" type="human" speed="6.28" pos="28.68" lane="left_0" slope="0.00"/>
    </timestep>
    <timestep time="6.80">
        <vehicle id="0" x="44.27" y="-0.82" angle="82.41" type="rl" speed="3.09" pos="7.38" lane="right_0" slope="0.00"/>
        <vehicle id="1" x="57.07" y="4.36" angle="61.54" type="human" speed="4.68" pos="20.69" lane="right_0" slope="0.00"/>
        <vehicle id="2" x="69.75" y="17.63" angle="33.61" type="human" speed="6.67" pos="38.46" lane="right_0" slope="0.00"/>
        <vehicle id="3" x="22.72" y="72.19" angle="252.56" type="human" speed="4.68" pos="13.59" lane="left_0" slope="0.00"/>
        <vehicle id="4" x="7.74" y="61.63" angle="224.87" type="human" speed="6.65" pos="31.34" lane="left_0" slope="0.00"/>
    </timestep>
    <timestep time="7.20">
        <vehicle id="0" x="45.67" y="-0.51" angle="80.27" type="rl" speed="3.43" pos="8.75" lane="right_0" slope="0.00"/>
        <vehicle id="1" x="58.82" y="5.54" angle="58.27" type="human" speed="5.05" pos="22.71" lane="right_0" slope="0.00"/>
        <vehicle id="2" x="71.11" y="20.23" angle="29.23" type="human" speed="7.04" pos="41.28" lane="right_0" slope="0.00"/>
        <vehicle id="3" x="20.77" y="71.37" angle="249.45" type="human" speed="5.06" pos="15.62" lane="left_0" slope="0.00"/>
        <vehicle id="4" x="5.91" y="59.35" angle="220.40" type="human" speed="7.01" pos="34.14" lane="left_0" slope="0.00"/>
    </timestep>
    <timestep time="7.60">
        <vehicle id="0" x="47.19" y="-0.10" angle="77.87" type="rl" speed="3.77" pos="10.26" lane="right_0" slope="0.00"/>
        <vehicle id="1" x="60.62" y="6.90" angle="54.97" type="human" speed="5.42" pos="24.88" lane="right_0" slope="0.00"/>
        <vehicle id="2" x="72.32" y="23.07" angle="24.61" type="human" speed="7.40" pos="44.24" lane="right_0" slope="0.00"/>
        <vehicle id="3" x="18.74" y="70.37" angle="246.01" type="human" speed="5.43" pos="17.79" lane="left_0" slope="0.00"/>
        <vehicle id="4" x="4.18" y="56.81" angle="215.82" type="human" speed="7.36" pos="37.09" lane="left_0" slope="0.00"/>
    </timestep>
    <timestep time="8.00">
        <vehicle id="0" x="48.83" y="0.42" angle="75.19" type="rl" speed="4.12" pos="11.90" lane="right_0" slope="0.00"/>
        <vehicle id="1" x="62.44" y="8.48" angle="51.34" type="human" speed="5.78" pos="27.19" lane="right_0" slope="0.00"/>
        <vehicle id="2" x="73.33" y="26.14" angle="19.74" type="human" speed="7.75" pos="47.34" lane="right_0" slope="0.00"/>
        <vehicle id="3" x="16.64" y="69.18" angle="242.43" type="human" speed="5.80" pos="20.11" lane="left_0" slope="0.00"/>
        <vehicle id="4" x="2.60" y="54.01" angle="210.95" type="human" speed="7.71" pos="40.17" lane="left_0" slope="0.00"/>
    </timestep>
    <timestep time="8.40">
        <vehicle id="0" x="50.58" y="1.06" angle="72.34" type="rl" speed="4.47" pos="13.69" lane="right_0" slope="0.00"/>
        <vehicle id="1" x="64.27" y="10.28" angle="47.40" type="human" speed="6.15" pos="29.65" lane="right_0" slope="0.00"/>
        <vehicle id="2" x="74.11" y="29.43" angle="14.72" type="human" speed="8.10" pos="50.58" lane="right_0" slope="0.00"/>
        <vehicle id="3" x="14.49" y="67.76" angle="238.51" type="human" speed="6.17" pos="22.57" lane="left_0" slope="0.00"/>
        <vehicle id="4" x="1.20" y="50.96" angle="206.01" type="human" speed="8.05" pos="43.39" lane="left_0" slope="0.00"/>
    </timestep>
    <timestep time="8.80">
        <vehicle id="0" x="52.43" y="1.84" angle="69.40" type="rl" speed="4.82" pos="15.62" lane="right_0" slope="0.00"/>
        <vehicle id="1" x="66.08" y="12.31" angle="43.45" type="human" speed="6.51" pos="32.25" lane="right_0" slope="0.00"/>
        <vehicle id="2" x="74.63" y="32.91" angle="9.63" type="human" speed="8.43" pos="53.95" lane="right_0" slope="0.00"/>
        <vehicle id="3" x="12.33" y="66.10" angle="234.45" type="human" speed="6.53" pos="25.19" lane="left_0" slope="0.00"/>
        <vehicle id="4" x="0.03" y="47.67" angle="200.80" type="human" speed="8.37" pos="46.74" lane="left_0" slope="0.00"/>
    </timestep>
    <timestep time="9.20">
        <vehicle id="0" x="54.37" y="2.79" angle="66.22" type="rl" speed="5.18" pos="17.69" lane="right_0" slope="0.00"/>
        <vehicle id="1" x="67.81" y="14.58" angle="39.19" type="human" speed="6.86" pos="35.00" lane="right_0" slope="0.00"/>
        <vehicle id="2" x="74.80" y="36.56" angle="4.00" type="human" speed="8.76" pos="57.45" lane="right_0" slope="0.00"/>
        <vehicle id="3" x="10.18" y="64.19" angle="230.11" type="human" speed="6.90" pos="27.94" lane="left_0" slope="0.00"/>
        <vehicle id="4" x="-0.85" y="44.16" angle="195.23" type="human" speed="8.69" pos="50.21" lane="left_0" slope="0.00"/>
    </timestep>
    <timestep time="9.60">
        <vehicle id="0" x="56.38" y="3.93" angle="62.75" type="rl" speed="5.53" pos="19.91" lane="right_0" slope="0.00"/>
        <vehicle id="1" x="69.45" y="17.10" angle="34.67" type="human" speed="7.21" pos="37.88" lane="right_0" slope="0.00"/>
        <vehicle id="2" x="74.62" y="40.34" angle="358.39" type="human" speed="9.08" pos="61.08" lane="right_0" slope="0.00"/>
        <vehicle id="3" x="8.07" y="62.02" angle="225.70" type="human" speed="7.25" pos="30.85" lane="left_0" slope="0.00"/>
        <vehicle id="4" x="-1.41" y="40.45" angle="189.74" type="human" speed="9.00" pos="53.81" lane="left_0" slope="0.00"/>
    </timestep>
    <timestep time="10.00">
        <vehicle id="0" x="58.44" y="5.27" angle="58.99" type="rl" speed="5.89" pos="22.26" lane="right_0" slope="0.00"/>
        <vehicle id="1" x="70.94" y="19.88" angle="29.93" type="human" speed="7.55" pos="40.90" lane="right_0" slope="0.00"/>
        <vehicle id="2" x="74.03" y="44.21" angle="352.31" type="human" speed="9.38" pos="64.84" lane="right_0" slope="0.00"/>
        <vehicle id="3" x="6.07" y="59.56" angle="220.83" type="human" speed="7.61" pos="33.89" lane="left_0" slope="0.00"/>
        <vehicle id="4" x="-1.60" y="36.57" angle="183.78" type="human" speed="9.29" pos="57.53" lane="left_0" slope="0.00"/>
    </timestep>
    <timestep time="10.40">
        <vehicle id="0" x="60.52" y="6.82" angle="55.19" type="rl" speed="6.24" pos="24.75" lane="right_0" slope="0.00"/>
        <vehicle id="1" x="72.25" y="22.89" angle="24.95" type="human" speed="7.88" pos="44.05" lane="right_0" slope="0.00"/>
        <vehicle id="2" x="73.03" y="48.11" angle="346.44" type="human" speed="9.68" pos="68.71" lane="right_0" slope="0.00"/>
        <vehicle id="3" x="4.19" y="56.83" angle="215.84" type="human" speed="7.95" pos="37.07" lane="left_0" slope="0.00"/>
        <vehicle id="4" x="-1.39" y="32.59" angle="177.91" type="human" speed="9.57" pos="61.36" lane="left_0" slope="0.00"/>
    </timestep>
    <timestep time="10.80">
        <vehicle id="0" x="62.60" y="8.62" angle="51.07" type="rl" speed="6.59" pos="27.39" lane="right_0" slope="0.00"/>
        <vehicle id="1" x="73.33" y="26.14" angle="19.74" type="human" speed="8.21" pos="47.34" lane="right_0" slope="0.00"/>
        <vehicle id="2" x="71.56" y="52.00" angle="340.21" type="human" speed="9.96" pos="72.69" lane="right_0" slope="0.00"/>
        <vehicle id="3" x="2.49" y="53.81" angle="210.66" type="human" speed="8.29" pos="40.39" lane="left_0" slope="0.00"/>
        <vehicle id="4" x="-0.74" y="28.53" angle="171.76" type="human" speed="9.85" pos="65.30" lane="left_0" slope="0.00"/>
    </timestep>
    <timestep time="11.20">
        <vehicle id="0" x="64.64" y="10.67" angle="46.65" type="rl" speed="6.93" pos="30.16" lane="right_0" slope="0.00"/>
        <vehicle id="1" x="74.15" y="29.60" angle="14.48" type="human" speed="8.52" pos="50.75" lane="right_0" slope="0.00"/>
        <vehicle id="2" x="69.62" y="55.80" angle="333.76" type="human" speed="10.23" pos="76.79" lane="right_0" slope="0.00"/>
        <vehicle id="3" x="1.02" y="50.53" angle="205.35" type="human" speed="8.63" pos="43.84" lane="left_0" slope="0.00"/>
        <vehicle id="4" x="0.38" y="24.47" angle="165.36" type="human" speed="10.10" pos="69.34" lane="left_0" slope="0.00"/>
    </timestep>
    <timestep time="11.60">
        <vehicle id="0" x="66.61" y="12.98" angle="42.12" type="rl" speed="7.28" pos="33.07" lane="right_0" slope="0.00"/>
        <vehicle id="1" x="74.65" y="33.25" angle="9.03" type="human" speed="8.82" pos="54.28" lane="right_0" slope="0.00"/>
        <vehicle id="2" x="67.21" y="59.45" angle="327.13" type="human" speed="10.49" pos="80.98" lane="right_0" slope="0.00"/>
        <vehicle id="3" x="-0.16" y="46.99" angle="199.69" type="human" speed="8.95" pos="47.42" lane="left_0" slope="0.00"/>
        <vehicle id="4" x="1.98" y="20.47" angle="158.82" type="human" speed="10.35" pos="73.48" lane="left_0" slope="0.00"/>
    </timestep>
    <timestep time="12.00">
        <vehicle id="0" x="68.47" y="15.55" angle="37.41" type="rl" speed="7.61" pos="36.12" lane="right_0" slope="0.00"/>
        <vehicle id="1" x="74.80" y="37.05" angle="3.33" type="human" speed="9.12" pos="57.92" lane="right_0" slope="0.00"/>
        <vehicle id="2" x="64.33" y="62.88" angle="320.45" type="human" speed="10.74" pos="85.28" lane="right_0" slope="0.00"/>
        <vehicle id="3" x="-1.03" y="43.22" angle="193.95" type="human" speed="9.26" pos="51.12" lane="left_0" slope="0.00"/>
        <vehicle id="4" x="4.07" y="16.58" angle="152.23" type="human" speed="10.58" pos="77.71" lane="left_0" slope="0.00"/>
    </timestep>
    <timestep time="12.40">
        <vehicle id="0" x="70.18" y="18.39" angle="32.47" type="rl" speed="7.94" pos="39.30" lane="right_0" slope="0.00"/>
        <vehicle id="1" x="74.55" y="40.95" angle="357.30" type="human" speed="9.39" pos="61.68" lane="right_0" slope="0.00"/>
        <vehicle id="2" x="60.99" y="66.00" angle="313.52" type="human" speed="10.97" pos="89.67" lane="right_0" slope="0.00"/>
        <vehicle id="3" x="-1.51" y="39.26" angle="187.88" type="human" speed="9.57" pos="54.95" lane="left_0" slope="0.00"/>
        <vehicle id="4" x="6.66" y="12.89" angle="145.49" type="human" speed="10.80" pos="82.03" lane="left_0" slope="0.00"/>
    </timestep>
    <timestep time="12.80">
        <vehicle id="0" x="71.68" y="21.50" angle="27.20" type="rl" speed="8.27" pos="42.61" lane="right_0" slope="0.00"/>
        <vehicle id="1" x="73.88" y="44.93" angle="351.33" type="human" speed="9.66" pos="65.54" lane="right_0" slope="0.00"/>
        <vehicle id="2" x="57.22" y="68.76" angle="306.59" type="human" speed="11.19" pos="94.14" lane="right_0" slope="0.00"/>
        <vehicle id="3" x="-1.57" y="35.15" angle="181.64" type="human" speed="9.86" pos="58.89" lane="left_0" slope="0.00"/>
        <vehicle id="4" x="9.72" y="9.47" angle="138.60" type="human" speed="11.01" pos="86.44" lane="left_0" slope="0.00"/>
    </timestep>
    <timestep time="13.20">
        <vehicle id="0" x="72.94" y="24.85" angle="21.82" type="rl" speed="8.58" pos="46.04" lane="right_0" slope="0.00"/>
        <vehicle id="1" x="72.76" y="48.90" angle="345.17" type="human" speed="9.91" pos="69.51" lane="right_0" slope="0.00"/>
        <vehicle id="2" x="53.07" y="71.07" angle="299.45" type="human" speed="11.40" pos="98.70" lane="right_0" slope="0.00"/>
        <vehicle id="3" x="-1.18" y="30.94" angle="175.39" type="human" speed="10.14" pos="62.95" lane="left_0" slope="0.00"/>
        <vehicle id="4" x="13.23" y="6.39" angle="131.58" type="human" speed="11.21" pos="90.92" lane="left_0" slope="0.00"/>
    </timestep>
    <timestep time="13.60">
        <vehicle id="0" x="73.91" y="28.43" angle="16.30" type="rl" speed="8.89" pos="49.60" lane="right_0" slope="0.00"/>
        <vehicle id="1" x="71.18" y="52.83" angle="338.73" type="human" speed="10.15" pos="73.56" lane="right_0" slope="0.00"/>
        <vehicle id="2" x="48.59" y="72.88" angle="292.27" type="human" speed="11.59" pos="103.34" lane="right_0" slope="0.00"/>
        <vehicle id="3" x="-0.30" y="26.70" angle="168.92" type="human" speed="10.40" pos="67.11" lane="left_0" slope="0.00"/>
        <vehicle id="4" x="17.16" y="3.72" angle="124.42" type="human" speed="11.39" pos="95.48" lane="left_0" slope="0.00"/>
    </timestep>
    <timestep time="14.00">
        <vehicle id="0" x="74.54" y="32.20" angle="10.56" type="rl" speed="9.19" pos="53.27" lane="right_0" slope="0.00"/>
        <vehicle id="1" x="69.13" y="56.63" angle="332.28" type="human" speed="10.37" pos="77.71" lane="right_0" slope="0.00"/>
        <vehicle id="2" x="43.83" y="74.12" angle="284.89" type="human" speed="11.78" pos="108.05" lane="right_0" slope="0.00"/>
        <vehicle id="3" x="1.10" y="22.48" angle="162.24" type="human" speed="10.66" pos="71.37" lane="left_0" slope="0.00"/>
        <vehicle id="4" x="21.46" y="1.53" angle="117.29" type="human" speed="11.57" pos="100.10" lane="left_0" slope="0.00"/>
    </timestep>
    <timestep time="14.40">
        <vehicle id="0" x="74.80" y="36.14" angle="4.70" type="rl" speed="9.47" pos="57.06" lane="right_0" slope="0.00"/>
        <vehicle id="1" x="66.60" y="60.25" angle="325.60" type="human" speed="10.58" pos="81.94" lane="right_0" slope="0.00"/>
        <vehicle id="2" x="38.89" y="74.73" angle="277.25" type="human" speed="11.95" pos="112.83" lane="right_0" slope="0.00"/>
        <vehicle id="3" x="3.03" y="18.37" angle="155.42" type="human" speed="10.90" pos="75.73" lane="left_0" slope="0.00"/>
        <vehicle id="4" x="26.06" y="-0.12" angle="109.99" type="human" speed="11.73" pos="104.80" lane="left_0" slope="0.00"/>
    </timestep>
    <timestep time="14.80">
        <vehicle id="0" x="74.64" y="40.20" angle="358.56" type="rl" speed="9.74" pos="60.95" lane="right_0" slope="0.00"/>
        <vehicle id="1" x="63.62" y="63.61" angle="318.94" type="human" speed="10.77" pos="86.25" lane="right_0" slope="0.00"/>
        <vehicle id="2" x="33.89" y="74.71" angle="269.84" type="human" speed="12.11" pos="2.57" lane="left_0" slope="0.00"/>
        <vehicle id="3" x="5.49" y="14.43" angle="148.55" type="human" speed="11.12" pos="80.18" lane="left_0" slope="0.00"/>
        <vehicle id="4" x="30.91" y="-1.17" angle="102.49" type="human" speed="11.88" pos="109.55" lane="left_0" slope="0.00"/>
    </timestep>
    <timestep time="15.20">
        <vehicle id="0" x="74.01" y="44.33" angle="352.14" type="rl" speed="10.00" pos="64.96" lane="right_0" slope="0.00"/>
        <vehicle id="1" x="60.20" y="66.64" angle="312.08" type="human" speed="10.95" pos="90.63" lane="right_0" slope="0.00"/>
        <vehicle id="2" x="28.83" y="74.01" angle="262.23" type="human" speed="12.25" pos="7.47" lane="left_0" slope="0.00"/>
        <vehicle id="3" x="8.47" y="10.76" angle="141.33" type="human" speed="11.33" pos="84.71" lane="left_0" slope="0.00"/>
        <vehicle id="4" x="35.90" y="-1.59" angle="94.89" type="human" speed="12.03" pos="114.36" lane="left_0" slope="0.00"/>
    </timestep>
    <timestep time="15.60">
        <vehicle id="0" x="72.91" y="48.46" angle="345.80" type="rl" speed="10.25" pos="69.06" lane="right_0" slope="0.00"/>
        <vehicle id="1" x="56.39" y="69.28" angle="305.10" type="human" speed="11.12" pos="95.08" lane="right_0" slope="0.00"/>
        <vehicle id="2" x="23.85" y="72.61" angle="254.34" type="human" speed="12.39" pos="12.43" lane="left_0" slope="0.00"/>
        <vehicle id="3" x="11.94" y="7.44" angle="134.06" type="human" speed="11.53" pos="89.32" lane="left_0" slope="0.00"/>
        <vehicle id="4" x="40.92" y="-1.35" angle="87.44" type="human" speed="12.16" pos="4.12" lane="right_0" slope="0.00"/>
    </timestep>
    <timestep time="16.00">
        <vehicle id="0" x="71.32" y="52.53" angle="339.23" type="rl" speed="10.48" pos="73.25" lane="right_0" slope="0.00"/>
        <vehicle id="1" x="52.23" y="71.46" angle="297.95" type="human" speed="11.28" pos="99.59" lane="right_0" slope="0.00"/>
        <vehicle id="2" x="19.06" y="70.55" angle="246.66" type="human" speed="12.52" pos="17.44" lane="left_0" slope="0.00"/>
        <vehicle id="3" x="15.86" y="4.53" angle="126.77" type="human" speed="11.71" pos="94.01" lane="left_0" slope="0.00"/>
        <vehicle id="4" x="45.96" y="-0.43" angle="79.73" type="human" speed="12.29" pos="9.04" lane="right_0" slope="0.00"/>
    </timestep>
    <timestep time="16.40">
        <vehicle id="0" x="69.23" y="56.47" angle="332.62" type="rl" speed="10.70" pos="77.53" lane="right_0" slope="0.00"/>
        <vehicle id="1" x="47.77" y="73.13" angle="290.90" type="human" speed="11.42" pos="104.16" lane="right_0" slope="0.00"/>
        <vehicle id="2" x="14.57" y="67.81" angle="238.62" type="human" speed="12.63" pos="22.49" lane="left_0" slope="0.00"/>
        <vehicle id="3" x="20.18" y="2.11" angle="119.41" type="human" speed="11.88" pos="98.76" lane="left_0" slope="0.00"/>
        <vehicle id="4" x="50.88" y="1.18" angle="71.91" type="human" speed="12.40" pos="14.00" lane="right_0" slope="0.00"/>
    </timestep>
    <timestep time="16.80">
        <vehicle id="0" x="66.64" y="60.20" angle="325.71" type="rl" speed="10.90" pos="81.89" lane="right_0" slope="0.00"/>
        <vehicle id="1" x="43.09" y="74.25" angle="283.73" type="human" speed="11.55" pos="108.78" lane="right_0" slope="0.00"/>
        <vehicle id="2" x="10.45" y="64.45" angle="230.76" type="human" speed="12.74" pos="27.59" lane="left_0" slope="0.00"/>
        <vehicle id="3" x="24.85" y="0.26" angle="111.83" type="human" speed="12.04" pos="103.58" lane="left_0" slope="0.00"/>
        <vehicle id="4" x="55.57" y="3.44" angle="64.21" type="human" speed="12.51" pos="19.00" lane="right_0" slope="0.00"/>
    </timestep>
    <timestep time="17.20">
        <vehicle id="0" x="63.56" y="63.66" angle="318.81" type="rl" speed="11.09" pos="86.33" lane="right_0" slope="0.00"/>
        <vehicle id="1" x="38.25" y="74.77" angle="276.42" type="human" speed="11.67" pos="113.45" lane="right_0" slope="0.00"/>